version 3
run PriorityTest-0-20251214-13:59:38-340264
attr configname PriorityTest
attr datetime 20251214-13:59:38
attr datetimef 20251214-135938
attr experiment PriorityTest
attr inifile omnetpp.ini
attr iterationvars ""
attr iterationvarsd ""
attr iterationvarsf ""
attr measurement ""
attr network simulations.UAVGroundStationNetwork
attr processid 340264
attr repetition 0
attr replication #0
attr resultdir results
attr runnumber 0
attr seedset 0
config description "Test priority queue behavior"
config **.uav1.missionType "\"surveillance\""
config **.uav2.missionType "\"delivery\""
config **.uav3.missionType "\"emergency\""
config **.groundStation.processingDelay 1s
config network simulations.UAVGroundStationNetwork
config sim-time-limit 50s
config seed-set 0
config repeat 5
config **.uav*.ackTimeout 2s
config **.uav*.maxRetries 3
config **.uav*.transmitPower 100mW
config **.uav*.xVelocity 2.0
config **.uav*.yVelocity 2.0
config **.uav*.moveInterval 0.1
config **.uav*.encryptionKey "\"simkey\""
config **.groundStation.queueCapacity 50
config **.groundStation.processingDelay 0.1s
config **.groundStation.encryptionKey "\"simkey\""
config **.channel*.datarate 1Mbps
config **.channel*.ber 1e-6
config **.scalar-recording true
config **.vector-recording true
config **.uav*.messagesSent.statistic-recording true
config **.uav*.messagesReceived.statistic-recording true
config **.uav*.retransmissions.statistic-recording true
config **.uav*.timeouts.statistic-recording true
config **.groundStation.queueLength.statistic-recording true
config **.groundStation.messagesProcessed.statistic-recording true
config **.groundStation.messagesDropped.statistic-recording true
config **.groundStation.processingDelay.statistic-recording true
config output-vector-file results/PriorityTest-0.vec
config output-scalar-file results/PriorityTest-0.sca

vector 0 UAVGroundStationNetwork.uav1 messagesSent:vector ETV
attr recordingmode vector
vector 1 UAVGroundStationNetwork.groundStation queueLength:vector ETV
attr recordingmode vector
vector 2 UAVGroundStationNetwork.groundStation processingDelay:vector ETV
attr recordingmode vector
vector 3 UAVGroundStationNetwork.groundStation messagesProcessed:vector ETV
attr recordingmode vector
vector 4 UAVGroundStationNetwork.uav2 messagesSent:vector ETV
attr recordingmode vector
0	61	2.097627004609	1
1	62	2.097628004609	1
1	62	2.097628004609	0
1	68	2.185690232778	1
2	62	2.097628004609	1
3	62	2.097628004609	1
4	67	2.185689232778	1
vector 5 UAVGroundStationNetwork.uav3 messagesSent:vector ETV
attr recordingmode vector
1	79	2.430379729943	2
5	78	2.430378729943	1
vector 6 UAVGroundStationNetwork.uav3 timeouts:vector ETV
attr recordingmode vector
vector 7 UAVGroundStationNetwork.uav3 retransmissions:vector ETV
attr recordingmode vector
0	199	5.905917115743	1
0	297	8.798520931509	1
0	420	12.385205696105	1
0	565	16.329721325777	1
0	709	20.732453583275	1
0	851	24.894351538039	1
0	948	27.453348571669	1
0	1085	31.306255074219	1
0	1190	34.384778780398	1
0	1333	38.344198876993	1
0	1461	42.05478920485	1
0	1544	44.538717738354	1
0	1676	48.284268734978	1
1	98	3.097628004609	1
1	131	4.097628004609	0
1	200	5.905918115743	1
1	200	5.905918115743	0
1	215	6.301070819135	1
1	229	6.72744544455	2
1	236	6.905918115743	1
1	269	7.905918115743	0
1	298	8.798521931509	1
1	305	8.905918115743	0
1	335	9.877770008511	1
1	339	9.905918115743	0
1	380	11.192059111308	1
1	380	11.192059111308	0
1	421	12.385206696105	1
1	421	12.385206696105	0
1	445	13.056124387999	1
1	456	13.385206696105	0
1	462	13.405167287441	1
1	491	14.385206696105	0
1	548	15.82621961971	1
1	548	15.82621961971	0
1	566	16.329722325777	1
1	582	16.82621961971	0
1	606	17.55398391652	1
1	617	17.82621961971	0
1	710	20.732454583275	1
1	710	20.732454583275	0
1	713	20.762074648395	1
1	744	21.732454583275	0
1	750	21.895571443477	1
1	779	22.732454583275	0
1	795	23.192134504897	1
1	814	23.732454583275	0
1	852	24.894352538039	1
1	852	24.894352538039	0
1	902	26.17141830478	1
1	902	26.17141830478	0
1	914	26.436120328253	1
1	937	27.17141830478	0
1	949	27.453349571669	1
1	972	28.17141830478	0
1	984	28.436120328253	1
1	998	28.841774848049	2
1	1008	29.17141830478	1
1	1024	29.539869312655	2
1	1043	30.17141830478	1
1	1077	31.17141830478	0
1	1086	31.306256074219	1
1	1094	31.508739004602	2
1	1114	32.17141830478	1
1	1146	33.17141830478	0
1	1188	34.371113538502	1
1	1188	34.371113538502	0
1	1191	34.384779780398	1
1	1208	34.819834862595	2
1	1230	35.371113538502	1
1	1263	36.371113538502	0
1	1273	36.551789937999	1
1	1300	37.332563620984	2
1	1301	37.371113538502	1
1	1334	38.344199876993	2
1	1335	38.371113538502	1
1	1369	39.371113538502	0
1	1419	40.803848354604	1
1	1419	40.803848354604	0
1	1431	41.156055621096	1
1	1453	41.803848354604	0
1	1462	42.05479020485	1
1	1488	42.803848354604	0
1	1545	44.538718738354	1
1	1545	44.538718738354	0
1	1572	45.114426577921	1
1	1585	45.538718738354	0
1	1594	45.768969850141	1
1	1620	46.538718738354	0
1	1677	48.284269734978	1
1	1677	48.284269734978	0
1	1689	48.513358896357	1
1	1711	49.284269734978	0
1	1726	49.639500168144	1
2	98	3.097628004609	1
2	131	4.097628004609	1
2	200	5.905918115743	1
2	236	6.905918115743	1
2	269	7.905918115743	1
2	305	8.905918115743	1
2	339	9.905918115743	1
2	380	11.192059111308	1
2	421	12.385206696105	1
2	456	13.385206696105	1
2	491	14.385206696105	1
2	548	15.82621961971	1
2	582	16.82621961971	1
2	617	17.82621961971	1
2	710	20.732454583275	1
2	744	21.732454583275	1
2	779	22.732454583275	1
2	814	23.732454583275	1
2	852	24.894352538039	1
2	902	26.17141830478	1
2	937	27.17141830478	1
2	972	28.17141830478	1
2	1008	29.17141830478	1
2	1043	30.17141830478	1
2	1077	31.17141830478	1
2	1114	32.17141830478	1
2	1146	33.17141830478	1
2	1188	34.371113538502	1
2	1230	35.371113538502	1
2	1263	36.371113538502	1
2	1301	37.371113538502	1
2	1335	38.371113538502	1
2	1369	39.371113538502	1
2	1419	40.803848354604	1
2	1453	41.803848354604	1
2	1488	42.803848354604	1
2	1545	44.538718738354	1
2	1585	45.538718738354	1
2	1620	46.538718738354	1
2	1677	48.284269734978	1
2	1711	49.284269734978	1
3	98	3.097628004609	1
3	131	4.097628004609	1
3	200	5.905918115743	1
3	236	6.905918115743	1
3	269	7.905918115743	1
3	305	8.905918115743	1
3	339	9.905918115743	1
3	380	11.192059111308	1
3	421	12.385206696105	1
3	456	13.385206696105	1
3	491	14.385206696105	1
3	548	15.82621961971	1
3	582	16.82621961971	1
3	617	17.82621961971	1
3	710	20.732454583275	1
3	744	21.732454583275	1
3	779	22.732454583275	1
3	814	23.732454583275	1
3	852	24.894352538039	1
3	902	26.17141830478	1
3	937	27.17141830478	1
3	972	28.17141830478	1
3	1008	29.17141830478	1
3	1043	30.17141830478	1
3	1077	31.17141830478	1
3	1114	32.17141830478	1
3	1146	33.17141830478	1
3	1188	34.371113538502	1
3	1230	35.371113538502	1
3	1263	36.371113538502	1
3	1301	37.371113538502	1
3	1335	38.371113538502	1
3	1369	39.371113538502	1
3	1419	40.803848354604	1
3	1453	41.803848354604	1
3	1488	42.803848354604	1
3	1545	44.538718738354	1
3	1585	45.538718738354	1
3	1620	46.538718738354	1
3	1677	48.284269734978	1
3	1711	49.284269734978	1
4	228	6.72744444455	1
4	334	9.877769008511	1
4	444	13.056123387999	1
4	605	17.55398291652	1
4	749	21.895570443477	1
4	901	26.17141730478	1
4	1023	29.539868312655	1
4	1187	34.371112538502	1
4	1272	36.551788937999	1
4	1418	40.803847354604	1
4	1593	45.768968850141	1
4	1725	49.639499168144	1
5	214	6.301069819135	1
5	379	11.192058111308	1
5	461	13.405166287441	1
5	547	15.82621861971	1
5	712	20.762073648395	1
5	794	23.192133504897	1
5	913	26.436119328253	1
5	997	28.841773848049	1
5	1093	31.508738004602	1
5	1207	34.819833862595	1
5	1299	37.332562620984	1
5	1430	41.156054621096	1
5	1571	45.114425577921	1
5	1688	48.513357896357	1
6	983	28.436119328253	1
7	983	28.436119328253	1

